 Gaussian 16, Revision B.01,
 Gaussian 16:  ES64L-G16RevB.01 20-Dec-2017

 ------------------------------------------------------------
 # opt freq scrf=(smd,solvent=water) def2svp em=gd3bj pbe1pbe
 ------------------------------------------------------------

 -------------------
 Title Card Required
 -------------------
 Symbolic Z-matrix:
 Charge =  0 Multiplicity = 1

 SCF Done:  E(RPBE1PBE) =  -854.381819620     A.U. after   11 cycles
 SCF Done:  E(RPBE1PBE) =  -854.381972467     A.U. after    9 cycles
 SCF Done:  E(RPBE1PBE) =  -854.381999371     A.U. after    8 cycles
 SCF Done:  E(RPBE1PBE) =  -854.382023080     A.U. after    9 cycles
 SCF Done:  E(RPBE1PBE) =  -854.382034290     A.U. after    8 cycles
 SCF Done:  E(RPBE1PBE) =  -854.382046220     A.U. after    8 cycles
 SCF Done:  E(RPBE1PBE) =  -854.382061351     A.U. after    8 cycles
 SCF Done:  E(RPBE1PBE) =  -854.382071213     A.U. after    8 cycles
 SCF Done:  E(RPBE1PBE) =  -854.382076436     A.U. after    8 cycles
 SCF Done:  E(RPBE1PBE) =  -854.382079328     A.U. after    8 cycles
 SCF Done:  E(RPBE1PBE) =  -854.382085581     A.U. after    8 cycles
 SCF Done:  E(RPBE1PBE) =  -854.382085551     A.U. after    8 cycles
 SCF Done:  E(RPBE1PBE) =  -854.382087455     A.U. after    8 cycles
 SCF Done:  E(RPBE1PBE) =  -854.382088214     A.U. after    7 cycles
 SCF Done:  E(RPBE1PBE) =  -854.382089265     A.U. after    8 cycles
 SCF Done:  E(RPBE1PBE) =  -854.382090191     A.U. after    7 cycles
 SCF Done:  E(RPBE1PBE) =  -854.382091202     A.U. after    7 cycles
 SCF Done:  E(RPBE1PBE) =  -854.382091810     A.U. after    7 cycles
 SCF Done:  E(RPBE1PBE) =  -854.382092023     A.U. after    6 cycles
 Optimization completed.
    -- Stationary point found.

 1\1\GINC-CN1537\FOpt\RPBE1PBE\def2SVP\C4H11I1S1\SHAOQ1\18-Dec-2021\0\\
 # opt freq scrf=(smd,solvent=water) def2svp em=gd3bj pbe1pbe\\Title Ca
 rd Required\\0,1\S,3.715636966,-0.0787831006,-0.5735556509\C,3.7712298
 398,0.7210405241,1.0415292851\H,4.060287325,1.7695998202,0.8800595707\
 H,2.7867143811,0.6976560844,1.5339030381\H,4.5186372215,0.2457618971,1
 .6953341136\C,3.2190768283,-1.7384732447,-0.0742452411\H,3.1294353735,
 -2.3436568448,-0.9879185014\H,3.9736910476,-2.1993837782,0.5815512788\
 H,2.2451600134,-1.7277063985,0.4386215228\C,0.2000644414,0.4512024383,

 Normal termination of Gaussian 16 at Sat Dec 18 15:43:00 2021.

 ---------------------------------------------------------------------
 #N Geom=AllCheck Guess=TCheck SCRF=Check GenChk RPBE1PBE/def2SVP Freq
 ---------------------------------------------------------------------

 Structure from the checkpoint file:  "/scratch/yang_lab/shaoqz//36121964/Gau-184043.chk"
 -------------------
 Title Card Required
 -------------------
 Charge =  0 Multiplicity = 1

                         Standard orientation:
 ---------------------------------------------------------------------
 Center     Atomic      Atomic             Coordinates (Angstroms)
 Number     Number       Type             X           Y           Z
 ---------------------------------------------------------------------
      1         16           0        3.452186   -0.056628   -0.547077
      2          6           0        3.479929    0.823434    1.026463
      3          1           0        3.734358    1.871703    0.813151
      4          1           0        2.496289    0.791923    1.520133
      5          1           0        4.242042    0.405980    1.702394
      6          6           0        3.010243   -1.705101    0.034023
      7          1           0        2.941430   -2.357328   -0.848557
      8          1           0        3.779084   -2.107876    0.711228
      9          1           0        2.036052   -1.701159    0.546465
     10          6           0       -0.079303    0.375453   -0.184825
     11          1           0        0.270475   -0.227344   -1.030812
     12          6           0        0.089356    1.853329   -0.406220
     13          1           0       -0.441913    2.197521   -1.305677
     14          1           0       -0.260226    2.441746    0.454563
     15          1           0        1.163921    2.056579   -0.549355
     16         53           0       -2.162226   -0.199450    0.060135
     17          1           0        0.400116    0.022471    0.735918
 ---------------------------------------------------------------------

 SCF Done:  E(RPBE1PBE) =  -854.382092023     A.U. after    1 cycles

 The electronic state is 1-A.
 Alpha  occ. eigenvalues --  -88.98847 -10.27190 -10.24532 -10.24507 -10.22660
 Alpha  occ. eigenvalues --   -7.98900  -6.88166  -5.93166  -5.92786  -5.92101
 Alpha  occ. eigenvalues --   -4.89806  -4.88494  -4.88480  -1.92487  -1.92069
 Alpha  occ. eigenvalues --   -1.92055  -1.90940  -1.90940  -0.81060  -0.79223
 Alpha  occ. eigenvalues --   -0.70662  -0.69243  -0.60548  -0.59916  -0.46722
 Alpha  occ. eigenvalues --   -0.44711  -0.44216  -0.42829  -0.42552  -0.40757
 Alpha  occ. eigenvalues --   -0.39975  -0.36638  -0.36436  -0.32617  -0.31879
 Alpha  occ. eigenvalues --   -0.26242  -0.26095  -0.22479
 Alpha virt. eigenvalues --   -0.01207   0.06096   0.07401   0.10687   0.11468
 Alpha virt. eigenvalues --    0.11929   0.12943   0.13161   0.14702   0.15823
 Alpha virt. eigenvalues --    0.16376   0.17896   0.18956   0.22470   0.22994

 Mulliken charges:
               1
     1  S   -0.182427
     2  C   -0.187925
     3  H    0.099967
     4  H    0.095962
     5  H    0.093747
     6  C   -0.186386
     7  H    0.099355
     8  H    0.093447
     9  H    0.093436
    10  C   -0.285707
    11  H    0.121654
    12  C   -0.075875
    13  H    0.066861
    14  H    0.066775
    15  H    0.065605
    16  I   -0.120251
    17  H    0.141761
 Sum of Mulliken charges =  -0.00000

 Dipole moment (field-independent basis, Debye):
    X=              2.4057    Y=              0.0863    Z=              1.5842  Tot=              2.8817
 Quadrupole moment (field-independent basis, Debye-Ang):
   XX=            -73.4345   YY=            -64.3544   ZZ=            -68.0959
   XY=             -1.1180   XZ=              6.3256   YZ=              0.8466

  Exact polarizability: 134.608  15.994 121.593  -2.660   2.014 102.593
 Approx polarizability: 135.985  15.734 119.799  -4.636   1.208 106.350

                      1                      2                      3
                      A                      A                      A
 Frequencies --     26.6322                37.5224                52.5559
 Red. masses --      4.2298                 4.6779                 2.2235
 Frc consts  --      0.0018                 0.0039                 0.0036
 IR Inten    --      2.6471                 0.8423                 0.9768

                      4                      5                      6
                      A                      A                      A
 Frequencies --     73.3074                89.9434               104.2680
 Red. masses --      4.0237                 2.4368                 2.5091
 Frc consts  --      0.0127                 0.0116                 0.0161
 IR Inten    --      4.6066                 0.5377                 6.2021

                      7                      8                      9
                      A                      A                      A
 Frequencies --    184.5843               193.6181               260.1687
 Red. masses --      1.0968                 1.1017                 2.4347
 Frc consts  --      0.0220                 0.0243                 0.0971
 IR Inten    --      0.5248                 2.8533                 2.3454

                     10                     11                     12
                      A                      A                      A
 Frequencies --    273.0105               275.3857               503.2377
 Red. masses --      1.4334                 1.8715                 3.9153
 Frc consts  --      0.0629                 0.0836                 0.5842
 IR Inten    --      0.3748                 1.1613                30.2362

                     13                     14                     15
                      A                      A                      A
 Frequencies --    720.2417               753.0261               773.1817
 Red. masses --      4.7145                 1.1174                 6.2526
 Frc consts  --      1.4409                 0.3733                 2.2023
 IR Inten    --      5.9057                19.9006                 0.0178

                     16                     17                     18
                      A                      A                      A
 Frequencies --    911.2229               952.0734               965.0485
 Red. masses --      1.1774                 1.1596                 1.3492
 Frc consts  --      0.5760                 0.6193                 0.7403
 IR Inten    --      2.3571                 0.3005                59.6185

                     19                     20                     21
                      A                      A                      A
 Frequencies --    982.6500               990.4570              1045.8313
 Red. masses --      1.1606                 1.1974                 1.4008
 Frc consts  --      0.6603                 0.6921                 0.9027
 IR Inten    --      6.8897                 5.7275                22.7906

                     22                     23                     24
                      A                      A                      A
 Frequencies --   1092.6371              1203.1240              1236.8699
 Red. masses --      2.4889                 1.2412                 1.2825
 Frc consts  --      1.7507                 1.0585                 1.1560
 IR Inten    --      1.2333               188.8561                 2.3507

                     25                     26                     27
                      A                      A                      A
 Frequencies --   1319.8828              1343.2342              1374.1958
 Red. masses --      1.1650                 1.1702                 1.2609
 Frc consts  --      1.1957                 1.2440                 1.4029
 IR Inten    --      1.8309                 0.2528                13.7564

                     28                     29                     30
                      A                      A                      A
 Frequencies --   1418.6107              1423.8326              1434.1473
 Red. masses --      1.0473                 1.0486                 1.1030
 Frc consts  --      1.2418                 1.2525                 1.3366
 IR Inten    --      0.3451                25.6870                10.9640

                     31                     32                     33
                      A                      A                      A
 Frequencies --   1436.6119              1439.5865              1443.1838
 Red. masses --      1.0372                 1.0701                 1.0643
 Frc consts  --      1.2612                 1.3066                 1.3060
 IR Inten    --     11.7499                25.8135                 6.4644

                     34                     35                     36
                      A                      A                      A
 Frequencies --   1448.0123              3053.5167              3056.5589
 Red. masses --      1.0497                 1.0322                 1.0332
 Frc consts  --      1.2968                 5.6705                 5.6870
 IR Inten    --      4.2458                26.2554                44.9178

                     37                     38                     39
                      A                      A                      A
 Frequencies --   3056.6116              3139.5914              3151.9530
 Red. masses --      1.0370                 1.0647                 1.0961
 Frc consts  --      5.7082                 6.1832                 6.4161
 IR Inten    --      5.9129                 3.9294                14.5347

                     40                     41                     42
                      A                      A                      A
 Frequencies --   3158.6185              3165.8210              3170.4367
 Red. masses --      1.1084                 1.1093                 1.1063
 Frc consts  --      6.5152                 6.5503                 6.5520
 IR Inten    --     19.5790                 0.0567                13.8051

                     43                     44                     45
                      A                      A                      A
 Frequencies --   3181.3615              3183.0770              3224.9731
 Red. masses --      1.1062                 1.1055                 1.1119
 Frc consts  --      6.5962                 6.5993                 6.8132
 IR Inten    --      5.7114                 0.0386                 0.5544

 - Thermochemistry -
 -------------------
 Temperature   298.150 Kelvin.  Pressure   1.00000 Atm.
 Atom     1 has atomic number 16 and mass  31.97207

 Molecular mass:   217.95855 amu.
 Principal axes and moments of inertia in atomic units:
                           1         2         3
     Eigenvalues --   568.788704688.879284999.85974
           X            0.99982  -0.01190   0.01459
           Y            0.01183   0.99992   0.00516
           Z           -0.01465  -0.00499   0.99988
 This molecule is an asymmetric top.
 Rotational symmetry number  1.
 Warning -- assumption of classical behavior for rotation
           may cause significant error
 Rotational temperatures (Kelvin)      0.15228     0.01847     0.01732
 Rotational constants (GHZ):           3.17296     0.38490     0.36096
 Zero-point vibrational energy     372782.8 (Joules/Mol)
                                   89.09722 (Kcal/Mol)
 Warning -- explicit consideration of  12 degrees of freedom as
           vibrations may cause significant error
 Vibrational temperatures:     38.32    53.99    75.62   105.47   129.41
          (Kelvin)            150.02   265.58   278.57   374.32   392.80
                              396.22   724.05  1036.27  1083.44  1112.44
                             1311.05  1369.82  1388.49  1413.81  1425.05
                             1504.72  1572.06  1731.03  1779.58  1899.02
                             1932.61  1977.16  2041.06  2048.58  2063.42
                             2066.96  2071.24  2076.42  2083.37  4393.33
                             4397.71  4397.78  4517.17  4534.96  4544.55
                             4554.91  4561.55  4577.27  4579.74  4640.02

 Zero-point correction=                           0.141985 (Hartree/Particle)
 Thermal correction to Energy=                    0.153079
 Thermal correction to Enthalpy=                  0.154023
 Thermal correction to Gibbs Free Energy=         0.100852
 Sum of electronic and zero-point Energies=           -854.240107
 Sum of electronic and thermal Energies=              -854.229013
 Sum of electronic and thermal Enthalpies=            -854.228069
 Sum of electronic and thermal Free Energies=         -854.281240

                     E (Thermal)             CV                S
                      KCal/Mol        Cal/Mol-Kelvin    Cal/Mol-Kelvin
 Total                   96.059             34.293            111.909
 Electronic               0.000              0.000              0.000
 Translational            0.889              2.981             42.040
 Rotational               0.889              2.981             30.967
 Vibrational             94.281             28.331             38.901
 Vibration     1          0.593              1.984              6.066
 Vibration     2          0.594              1.982              5.386
 Vibration     3          0.596              1.977              4.719
 Vibration     4          0.599              1.967              4.063
 Vibration     5          0.602              1.956              3.661
 Vibration     6          0.605              1.946              3.373
 Vibration     7          0.631              1.861              2.282
 Vibration     8          0.635              1.849              2.193
 Vibration     9          0.668              1.746              1.661
 Vibration    10          0.676              1.723              1.577
 Vibration    11          0.677              1.719              1.562
 Vibration    12          0.859              1.243              0.650

                           ! Non-Optimized Parameters !

 1\1\GINC-CN1537\Freq\RPBE1PBE\def2SVP\C4H11I1S1\SHAOQ1\18-Dec-2021\0\\
 #N Geom=AllCheck Guess=TCheck SCRF=Check GenChk RPBE1PBE/def2SVP Freq\
 \Title Card Required\\0,1\S,3.715636966,-0.0787831006,-0.5735556509\C,
 3.7712298398,0.7210405241,1.0415292851\H,4.060287325,1.7695998202,0.88
 00595707\H,2.7867143811,0.6976560844,1.5339030381\H,4.5186372215,0.245
 7618971,1.6953341136\C,3.2190768283,-1.7384732447,-0.0742452411\H,3.12
 94353735,-2.3436568448,-0.9879185014\H,3.9736910476,-2.1993837782,0.58
 15512788\H,2.2451600134,-1.7277063985,0.4386215228\C,0.2000644414,0.45

 Normal termination of Gaussian 16 at Sat Dec 18 15:43:47 2021.
